Chemical Name,Chemical Abbreviation,Molecular Weight (g/mol),Density            (g/mL),InChI,InChI Key (ID),Canonical SMILES String,Molecular Formula
Ethylammonium Iodide,EtNH3I,172.997,,"1S/C2H7N.HI/c1-2-3;/h2-3H2,1H3;1H",XFYICZOIWSBQSK-UHFFFAOYSA-N,CCN.I,C2H8IN
Formic Acid,FAH,46.025,1.22,"1S/CH2O2/c2-1-3/h1H,(H,2,3)",BDAGIHXWWSANSR-UHFFFAOYSA-N,C(=O)O,CH2O2
Gamma-Butyrolactone,GBL,86.09,1.12,1S/C4H6O2/c5-4-2-1-3-6-4/h1-3H2,YEJRWHAVMIAJKC-UHFFFAOYSA-N,C1CC(=O)OC1,C4H6O2
Lead Diiodide,PbI2,461.009,,1S/2HI.Pb/h2*1H;/q;;+2/p-2,RQQRAHKHDFPBMC-UHFFFAOYSA-L,I[Pb]I,PbI2
n-Butylammonium iodide,n-BuNH3I,201.051,,"1S/C4H11N.HI/c1-2-3-4-5;/h2-5H2,1H3;1H",CALQKRVFTWDYDG-UHFFFAOYSA-N,CCCC[NH3+].[I-],C4H12IN
Phenethylammonium iodide ,PhEtNH3I,249.095,,"1S/C8H11N.HI/c9-7-6-8-4-2-1-3-5-8;/h1-5H,6-7,9H2;1H",UPHCENSIMPJEIS-UHFFFAOYSA-N,C1=CC=C(C=C1)CC[NH3+].[I-],C8H12IN
null,null,null,null,null,null,null,null